235
Lattice="13.512090319 0.000652759 -0.01235868 0.724541565 13.403391358 -0.002089275 0.127996701 -0.533048953 21.716903097" Properties=species:S:1:pos:R:3:force:R:3 energy=-1875.701421 virial="-0.012852727803329085 -0.0015098023330237824 0.00022545579264515505 -0.0015098023330237824 -0.014264813069478039 0.0007488500234143474 0.00022545579264515505 0.0007488500234143474 -0.014456277603423634" magmom=9.4699207 free_energy=-1875.69514121 pbc="T T T"
C       10.00141000       5.77256000      16.50200000      -0.32028500      -0.04154700       0.26658100
C       12.52330000       9.99071000      15.37236000      -0.54776800      -0.14049500      -0.16485300
C        2.37775000       5.15015000      13.52688000       0.23040000      -0.13466400      -0.20492300
C        3.02033000       7.82909000      15.94258000      -0.04288900       0.47348600      -0.43921900
C        0.97891000      11.73191000       7.59257000       0.22571500      -0.23147300      -0.06630100
C        4.13645000       1.27627000       7.73904000      -0.14640800       0.26018600      -0.03534100
C        1.69394000       1.21592000       7.91931000       0.01753900       0.40328300       0.06247300
C        8.95852000       0.58065000       8.59138000      -0.14705900      -0.70057200       0.45584100
C        1.35580000      10.28654000      11.96573000       0.41363500      -0.19106600       0.28112800
C        6.24740000       3.31177000       5.55611000      -0.26693200      -0.03424500      -0.17251100
C        1.20641000       9.21246000      16.15502000       0.13795000       0.00273100       0.09372700
C        2.03769000      11.21514000      14.08358000       0.53020900       0.00304900      -0.37298400
C        8.60330000       8.36320000      18.32520000      -0.07937400       0.03409000      -0.23651500
C        4.38584000       5.32226000      20.25120000      -0.12792700      -0.52525000      -0.00053700
C       13.31066000       6.49300000      18.41886000      -0.07052900      -0.34127000       0.41200800
C        3.96568000       7.30858000      18.93281000       0.42435500       0.21444200       0.32306400
C        5.62968000       4.33278000      18.48096000      -0.46009700       0.00991000      -0.05079400
C       13.64887000       1.60088000      15.55358000       0.35584500      -0.04798000       0.12167800
C        5.92419000       5.04601000      17.27629000      -0.43135700       0.05968300      -0.15190100
C       12.76713000       9.48396000      13.06132000      -0.06350600       0.11083600      -0.64919200
C        2.38612000       8.94051000      15.36581000       0.27828000      -0.07859900       0.02940600
C       13.86895000      10.23324000      15.67845000       0.31026500       0.16385700       0.24903400
C        2.10694000       5.59215000      18.65951000       0.41573300      -0.02053600       0.06454800
C        1.76929000       3.00508000      14.51315000       0.16262800       0.23637400      -0.36956100
C        1.43090000       1.18992000      12.90512000       0.16513200       0.15538600      -0.07861200
C        1.26225000       4.91738000      12.66360000      -0.08360800      -0.11198600      -0.30585100
C        5.37162000       7.45800000       0.55801000      -0.14435300       0.25755800      -0.15381300
C        6.66827000       4.03154000      19.41906000       0.27641200      -0.12499500       0.23097000
C       12.80034000       3.70842000      12.34875000      -0.23366700      -0.23012600      -0.08883900
C        7.24535000       5.27357000      16.89008000       0.23170100      -0.01305200       0.04027400
C       12.33727000       1.76045000      15.10998000      -0.39470100      -0.11286300      -0.51590000
C        3.37050000       6.73906000      15.08867000       0.05129900      -0.07554500       0.27678200
C        2.64628000       4.13126000      14.50178000       0.08602100      -0.47371400      -0.07702400
C        1.72223000       7.51990000      13.45474000       0.02469400       0.34090000       0.13714000
C       12.46522000       5.11385000      12.60718000       0.23466200       0.18555100      -0.35803300
C        1.34362000       2.53063000      13.16795000       0.19860000      -0.04230100      -0.04947800
C        5.27784000       5.53138000       2.01991000      -0.16368400      -0.25361200      -0.28115400
C       13.36129000       7.69631000      17.66867000       0.03864700       0.21794100      -0.16104700
C        2.32178000       7.52196000      17.17544000       0.31789100      -0.04840100       0.34935100
C       12.08954000       2.96338000      14.38026000      -0.03400200       0.18621700       0.26863300
C       12.02120000       4.56592000      16.22915000       0.03708900       0.11566900      -0.02214400
C       13.92800000       7.21039000      12.99904000      -0.15385300       0.20539700      -0.13892800
C        3.29470000       4.41392000      15.72527000       0.34461900       0.15818000      -0.08785000
C       10.24384000       4.47677000      18.62154000       0.56729300      -0.25043800      -0.14700200
C        6.17531000       8.48364000      18.87529000      -0.17330000       0.05315900      -0.32171900
C        7.25433000       8.43035000      17.93722000       0.06259400       0.17928400       0.19332300
C        5.02058000       7.96782000      18.21415000       0.07613800       0.06213600       0.53516000
C        7.65273000       9.34594000       1.24263000       0.25397200       0.16606800      -0.14217100
C        1.55432000       0.23387000      14.02558000       0.40211200      -0.20168200       0.19381600
C        4.98121000       5.99983000      16.67181000       0.58140000       0.09910900      -0.12855400
C        1.08870000       2.72389000      15.68606000      -0.22741200      -0.16460800       0.29418700
C        5.43467000       7.45315000      20.92474000       0.02421200      -0.19254700       0.38987500
C        9.07491000       6.89762000      16.50178000       0.06049300      -0.33062700      -0.24932700
C        9.57307000       4.72732000      17.39326000      -0.30041200      -0.08101700      -0.23714200
C        8.85134000       8.04666000      19.70064000       0.09234800      -0.00687500      -0.31343800
C        7.69967000       6.59631000      16.41138000      -0.03627100       0.15730000      -0.24328600
C        2.45711000      12.38413000      13.42316000       0.11849300      -0.18870100       0.43917900
C        1.34744000       3.53306000      16.86723000      -0.00370000      -0.01822300       0.18347500
C       12.45955000      11.60286000       8.95638000      -0.15018100       0.00203400      -0.12345800
C        9.95413000       7.12974000      19.96222000      -0.17746600       0.00908700       0.44115700
C       12.01561000       5.32640000      13.98532000      -0.09866700       0.11435400      -0.20916000
C        5.42499000       7.37943000      16.96874000       0.14995900      -0.03414300      -0.26235500
C        7.99836000       4.09697000      18.95044000      -0.29212300      -0.31183200       0.11437100
C        4.44942000       6.74930000      20.15856000      -0.32514300       0.48855100      -0.43969600
C       11.67161000       4.76356000      18.62408000      -0.37332200      -0.36219800       0.12117100
C        5.23839000       4.74332000      21.23577000      -0.28254800       0.30618400       0.27200200
C       14.00480000      12.63107000      15.24632000       0.37868600      -0.14043500      -0.07067000
C        9.69928000       6.20565000      21.09369000       0.13551800       0.54937800       0.06075300
C       11.00059000       7.09430000      19.07279000       0.52716700      -0.11678500      -0.25655500
C       12.07105000       7.76781000      14.62020000      -0.23408200      -0.27515900      -0.28692800
C        0.78694000       5.39154000      18.37388000      -0.11030000       0.12772400       0.40343500
C        1.05785000       8.16413000      17.10104000      -0.29093200      -0.11218300      -0.18509800
C       10.94451000       7.87724000      17.83088000      -0.41807000       0.15146800       0.24767600
C        0.72843000       3.60471000      12.43555000       0.14002700       0.19336200      -0.15303400
C        2.70883000       4.00922000      16.95314000       0.27161500       0.08377500       0.35487100
C        2.06326000       8.84716000      13.93245000       0.43401700      -0.18528400      -0.03886400
C        1.95708000       9.99731000      13.27191000       0.11934100       0.16781600      -0.19886700
C        4.27482000       4.58138000      18.96776000       0.43183300      -0.13413300       0.29601600
C       12.83036000       8.15487000      13.41124000      -0.08377700      -0.35060600      -0.07906900
C        7.81956000       8.15725000      20.65000000       0.01534200      -0.06765700       0.47346100
C        1.39276000       0.43811000      11.67453000       0.01417400       0.31847000      -0.43066500
C        3.11462000       4.59576000      18.23894000      -0.53387800      -0.39024100      -0.25902100
C       11.73391000       0.74182000      14.31095000       0.15004800      -0.01070500       0.62349400
C        8.20672000       4.51158000      17.59534000       0.36508600      -0.14972100      -0.42037800
C        0.68266000       0.33526000      15.17319000      -0.39066000       0.02815000       0.21225200
C       12.22243000       4.21794000      14.87614000      -0.08602600      -0.27361200      -0.08978400
C        6.41846000       8.25164000      20.26781000      -0.04564200       0.31888400      -0.07215200
C       11.72838000       6.42046000      14.79262000      -0.05534300       0.23954200       0.13797200
C       11.98334000       2.65226000      12.99826000      -0.21316500       0.16583100      -0.05300300
C       12.07785000       8.16704000      17.12460000       0.33603000       0.33246500      -0.18009300
C       11.75608000       0.27519000      11.92288000       0.02178200       0.22459500      -0.41721400
C       12.06174000       0.79429000      10.56117000      -0.28124700       0.10628200       0.32279300
C        2.79840000       6.86458000      18.34435000      -0.58741700       0.12780900      -0.17714600
C        5.16423000       6.08227000       0.74826000      -0.00660600      -0.34329500      -0.10200500
C       13.29302000      11.54051000      10.06827000      -0.19822200      -0.13753100       0.25312400
C       10.15558000      12.45982000       5.53039000       0.00972300      -0.28216500       0.54755000
C       10.19744000      11.56490000       7.85319000      -0.29439100      -0.16299700       0.40176500
C        9.76330000       0.36768000       5.20249000      -0.10683000       0.51099800      -0.10666600
C       11.03578000       0.91143000       9.61765000      -0.15730100      -0.19151600       0.12822400
C       12.89058000       1.55589000       8.50944000      -0.06137300       0.24918900      -0.02436700
C       12.45067000       4.14887000      17.50868000       0.02646400      -0.10457400       0.35259400
C        2.38955000      12.49593000      11.97296000       0.03689700      -0.48818900       0.17638200
C       12.25923000      11.83397000      13.67053000      -0.18095200       0.02472300       0.16710800
C       13.73284000       5.88108000      12.58601000      -0.14418900      -0.22803300      -0.14215000
C        9.34864000      12.01074000       3.40431000      -0.25583200      -0.40443300      -0.25712300
C       12.76925000      11.27433000      11.39574000       0.28324300       0.05494300      -0.21048500
C       11.70817000       1.23274000      12.94345000      -0.24328100      -0.05833400       0.10088400
C        0.37808000       4.14018000      17.71454000      -0.04259800      -0.37561500      -0.11827700
C       12.70997000      12.81884000      14.63953000      -0.42599800       0.17689800      -0.12841000
C       11.04245000      12.00742000       8.99874000       0.13556200      -0.41221200      -0.05850800
C       13.43438000       0.35372000       6.35478000       0.13391200      -0.08972400      -0.27819800
C        8.67051000      11.27097000       2.35850000       0.30982000       0.40045700      -0.15844800
C       11.27289000       5.80104000      16.05937000       0.10219100      -0.17392300      -0.22282100
C        9.07246000       7.42749000       0.55768000       0.45932800      -0.44188000       0.04841300
C        6.32426000       9.54291000       1.52964000      -0.43916100       0.18949800       0.15648800
C       12.25088000      10.48077000      13.99099000      -0.04451600       0.07284100       0.35855700
C        6.80858000       7.64360000      16.81516000      -0.41399500       0.09485900      -0.28635700
C        9.04132000       6.74846000       1.85738000      -0.03667100       0.41380800      -0.00979900
C        7.19644000       4.27261000       0.18566000      -0.27926800      -0.22029500       0.05440100
C        2.60847000       6.49538000      13.91332000       0.15397600       0.08039900      -0.16017100
C       11.45911000       1.53644000       8.38851000      -0.20822800       0.52737800      -0.11027200
C        8.74919000      11.83230000       8.06152000       0.12432100      -0.55661000       0.07444200
C        4.58531000       1.65164000       4.80471000      -0.22092400      -0.25962400      -0.23333900
C        6.39185000      11.98922000       2.16380000       0.01062200       0.13787700       0.07132000
C        8.51814000       3.42275000       4.90502000       0.23531700       0.13977500       0.42924100
C        5.19591000      11.45662000       7.12743000       0.24754900      -0.36365000       0.03647200
C        8.36582000      10.56893000       5.15832000       0.22379000       0.32302800       0.42476200
C        7.23983000       8.41201000       4.44972000       0.32795200       0.05945400       0.18312400
C       10.83711000       0.97339000       6.05602000       0.03352100      -0.25567700       0.03158400
C        7.80309000       2.11614000       7.08301000       0.29104000      -0.10873700       0.50232000
C       12.04519000       8.67119000      15.70226000      -0.05739800       0.45832300       0.41254400
C        8.31044000       9.42402000       4.44504000       0.02556000      -0.72858200      -0.03109000
C        8.85713000       7.54111000       3.05185000       0.45264100      -0.17884400      -0.13740700
C        1.89977000      11.36327000      11.23349000      -0.01722400      -0.03789500      -0.35601900
C        6.19300000      12.99261000       8.68997000      -0.11722400       0.44291800       0.01453600
C        3.23229000      11.97419000       8.61377000      -0.02038000      -0.21277500       0.13298600
C        5.27768000       3.43550000       3.36974000      -0.16647300      -0.06937000      -0.57230600
C        8.78337000       5.33467000       1.73310000       0.16768600      -0.31170000       0.01006000
C        8.63340000       9.93013000       2.18287000       0.01492700      -0.13815000      -0.33173900
C        5.29707000       1.80785000       7.16073000      -0.15911800       0.26923300      -0.11716900
C        8.64834000       0.01202000       3.08551000      -0.02579400       0.14498000      -0.36788200
C        9.32583000      11.62353000       4.74118000      -0.06949000      -0.12757000      -0.20299600
C       13.43849000      10.13985000      11.95182000      -0.53999500      -0.19967100       0.19810500
C        3.84007000      11.72882000       7.28817000      -0.17368900      -0.29231200       0.15947400
C        5.90870000      11.09665000       5.93378000      -0.72578000       0.21107300      -0.39685400
C        9.27836000       4.24381000      19.62652000      -0.05410900      -0.02936900       0.20928900
C        7.58270000       0.12395000       2.09175000      -0.16998800       0.26560100      -0.04890500
C       13.09300000      11.64941000       7.69433000      -0.06274400       0.00259800      -0.15855400
C        6.59105000       1.59017000       7.71601000      -0.03609400      -0.07120500       0.10414200
C        5.61580000      10.22939000       3.68702000      -0.22668300      -0.06357500       0.15852300
C        7.95428000       7.13207000       4.10162000       0.06361200       0.18936000       0.48046600
C        6.71732000       1.25096000       2.10079000       0.72136600      -0.15592500      -0.19584000
C        7.75549000      12.25623000       1.76514000       0.16959500      -0.37089700      -0.27890500
C       12.01967000       0.04203000       6.18828000       0.22775400       0.42080900      -0.50524100
C        6.61162000       0.41143000       8.51244000       0.15656900      -0.37405700       0.19111000
C       10.51830000       1.64169000       7.25205000       0.00836900       0.08517900       0.08704300
C        8.13922000       8.41864000       0.28431000      -0.18854600       0.54602700      -0.17816000
C        5.56966000       8.26145000       1.67311000       0.07427400       0.16320100      -0.07783700
C        8.55396000      13.12219000       8.55661000      -0.05575100       0.75089800       0.00329200
C        7.53512000      11.28105000       7.53239000       0.07296000       0.03087200       0.21311900
C        4.23147000       0.29747000       8.74386000       0.13552100      -0.38723300       0.58660600
C        5.23486000       2.34421000       5.84746000       0.12802800       0.15099000       0.38983700
C        7.28432000      10.87854000       6.17432000       0.54670900      -0.31595000      -0.03938600
C        5.34661000      11.26252000       4.59543000      -0.04427700      -0.22899400       0.32022000
C        8.45865000       2.97216000       2.65026000       0.24717100       0.15016700       0.38333300
C        9.06401000       1.61527000       7.66380000      -0.25238000       0.52616100      -0.13298000
C        5.96392000      10.63679000       2.38381000      -0.05861000      -0.19662900      -0.71290800
C        9.06027000       8.97217000       3.20634000       0.16305600       0.11946200       0.14154600
C        8.45313000       4.84776000       0.35639000       0.11352200       0.21060600       0.07631400
C        5.78319000      13.03103000       2.92716000       0.04944100      -0.27958900      -0.18914400
C        9.32477000       4.86945000      20.95677000       0.03910300      -0.45506900      -0.21954600
C       12.26913000      12.19601000       6.63593000      -0.13927400      -0.32620900       0.14082600
C        5.14143000      12.64816000       4.14133000      -0.19243300       0.16898200       0.14315600
C        8.66925000       4.42895000       2.79246000       0.18519400      -0.25414400      -0.21574100
C        8.81360000       2.35637000       3.94239000       0.23428100      -0.26167800      -0.29522600
C        5.43603000       1.00451000       2.64178000      -0.37453500       0.23315000       0.10002500
C        6.28083000      11.69892000       8.11243000      -0.21754900      -0.21022300       0.41339500
C        5.51093000       6.32354000       3.17339000      -0.12000400      -0.21208400       0.34480800
C        7.58148000       3.04805000       6.01921000       0.08730800       0.32887100      -0.28599900
C        6.37607000       4.02065000      20.82682000       0.07565900      -0.29938800      -0.33793900
C        4.02613000       5.66589000      15.78163000      -0.25881700       0.01499100      -0.30214600
C        4.94778000       2.07037000       3.49564000      -0.06013100       0.08006300       0.11920700
C        6.00974000       8.76153000       3.95976000      -0.58245600      -0.05831500       0.05970500
C        7.54989000       5.85167000       4.42794000       0.08581600      -0.27976300       0.29385900
C        8.42215000       4.65681000       4.19269000       0.20769800       0.41277100       0.22864800
C        9.06050000       0.97571000       4.07599000       0.17129200       0.19791000       0.03025900
C        3.96146000       0.33547000       4.99823000       0.25440700       0.17501200      -0.44293600
C        6.13183000       5.55356000       4.32106000      -0.30611500       0.26867700      -0.15614500
C        2.95036000       0.27706000       5.93738000      -0.63582100      -0.04791400       0.15810200
C        2.81622000       1.21318000       7.04871000       0.24846400       0.26776300       0.01978000
C        7.34916000       2.54072000       1.96251000      -0.43342400      -0.23254400      -0.36345000
C        1.18782000      11.54040000       9.96972000       0.32105700       0.00261600       0.19483200
C        5.54978000       4.10050000       2.09404000      -0.08076900       0.16237100       0.37787800
C        5.82028000       4.16710000       4.45192000      -0.04110600       0.22083200       0.60786200
C        6.57082000       3.62550000       1.33051000       0.22872200      -0.15186000      -0.18655000
C        5.52458000       7.73231000       2.98678000      -0.15000800       0.26024200       0.18598500
C        9.55302000       7.94845000      17.34767000       0.33734100       0.34023900       0.26062100
C       12.32508000      12.29595000      12.27809000      -0.14094500      -0.37881100       0.04695400
C        0.31366000       1.23680000       7.49727000      -0.04697000       0.15150600      -0.00390300
C       10.85682000      11.90072000       6.67880000       0.21939600      -0.03766700      -0.71427900
C        1.06776000      11.33962000      15.07886000      -0.40882800       0.13549800       0.42074800
C       13.22618000       1.30820000       9.92994000       0.41617800       0.05347800       0.10076100
C       12.04848000       6.07888000      18.92715000       0.05609000       0.29648000       0.04946200
C       10.04091000      -0.05629000       9.29578000       0.02365200       0.57030700       0.09203800
C        1.55296000      12.53390000       6.51752000      -0.36075200      -0.21525000      -0.09755500
C        3.70856000      13.16983000       9.19353000       0.19704400       0.26921100       0.16444500
C        1.04368000       0.94938000      10.32865000      -0.02981000       0.13923100       0.33040700
C        1.95659000       0.84630000       9.30757000       0.16578900       0.15334700      -0.17433900
C        1.81505000      11.65628000       8.73560000       0.01218800      -0.15666000      -0.12445000
C        2.92351000      12.44011000       6.32332000       0.33597500      -0.01621800      -0.49269600
Na       8.99893000      11.07470000      15.39385000       0.26654600      -0.11417000       0.17699500
Na      11.54192000       4.94939000      10.19981000       0.17292500      -0.24971400       0.19763700
Na       3.98996000       3.79539000      10.34487000      -0.22173000      -0.34037900       0.03991000
Na      10.96487000       4.16170000       6.56652000      -0.19259800      -0.39926900      -0.26785300
Na       6.75383000       6.67952000      12.89347000      -0.15296700      -0.04935700       0.51789000
Na       9.87619000       9.20292000      10.86234000       0.25190500       0.22383100       0.06084300
Na       4.75927000       9.81013000      16.11428000      -0.23867900      -0.12593400       0.10467100
Na      11.51812000       8.99967000       2.26303000      -0.33283700      -0.01973200       0.04749200
Na       5.96635000      11.36440000      11.90986000      -0.23350200       0.24414000      -0.12642800
Na       8.34660000      11.90287000      20.09717000      -0.07452100      -0.20506800       0.06185800
Na       1.10644000       9.10557000      20.79053000       0.04114200      -0.19314200      -0.15631200
Na      11.37929000       0.47432000      18.20763000       0.01536600       0.01789300      -0.17039500
Na       2.16352000       3.94438000      21.43666000       0.32734700       0.27107400      -0.44906800
Na      12.22773000      13.17978000       0.78015000      -0.00000100      -0.09217500       0.29716100
Na       3.29161000       8.26919000       9.73665000      -0.23699700       0.40981700       0.20735100
Na      12.19124000       3.55443000      21.60543000      -0.34332600       0.35176100      -0.31828100
Na       7.33230000       6.51450000       8.13519000       0.05608100      -0.09761400      -0.44119800
Na       7.30429000       2.01610000      16.54941000       0.36585000       0.50407700       0.54667700
Na      12.42325000       8.14365000       6.98749000       0.04645400       0.43437900      -0.24438400
Na       2.94797000       5.77546000       6.10722000       0.14008200      -0.17827600      -0.45461700
Na       2.02044000      10.24817000       3.67762000       0.07274700       0.08327000       0.07469600
Na       8.19504000       2.35581000      11.91280000       0.36839600      -0.24843700      -0.17235900
Na       0.89564000       2.17572000       3.56575000       0.09698700      -0.36589300       0.30860000
Na      13.62841000       6.33315000       2.50416000      -0.02810200       0.27024800       0.00140900
Na       4.75307000       1.79124000      14.58608000      -0.74730200       0.14979400       0.00033800
235
Lattice="13.652315406 0.017139524 -0.014963063 0.748400158 13.55865166 -0.010349692 0.124721847 -0.552163161 21.970687345" Properties=species:S:1:pos:R:3:force:R:3 energy=-1879.84105568 virial="0.016537284127120876 0.0009824821930144096 -0.0008241288649816255 0.0009824821930144096 0.017213170908853645 -0.0009114226116162285 -0.0008241288649816255 -0.0009114226116162285 0.018583169678966772" magmom=0.4255656 free_energy=-1879.81354642 pbc="T T T"
C       10.09361000       5.83921000      16.70232000       1.16841700      -0.14746700      -0.27418800
C       12.63594000      10.10487000      15.53544000       0.87067100       0.04358900       0.33029500
C        2.41746000       5.19764000      13.67122000      -0.27795200       0.27195900       0.03291800
C        3.05625000       7.93643000      16.10193000       0.20203500      -0.96788200       0.78201500
C        1.01298000      11.85236000       7.67069000      -0.57098800       0.15562100      -0.07955500
C        4.17241000       1.30403000       7.82611000       0.54717100      -0.45886100       0.51964800
C        1.71244000       1.24688000       8.01374000       0.16364400      -0.07313100      -0.00794100
C        9.04342000       0.55886000       8.71195000       0.37381100       2.00201000      -1.01215500
C        1.40038000      10.39013000      12.11266000      -0.78188200       0.38642200      -0.76724800
C        6.30224000       3.35248000       5.60940000       0.66129000      -0.21475100       0.28177700
C        1.23395000       9.31041000      16.34236000      -0.06451600       0.08744200      -0.32893000
C        2.09579000      11.33848000      14.22261000      -0.88805600      -0.37121500       1.34144800
C        8.69557000       8.46060000      18.52093000       0.12793600      -0.27152000       0.23833200
C        4.42789000       5.35102000      20.48355000       0.13048400       0.90195900       0.24547600
C       13.44989000       6.55620000      18.64762000       0.02947100       0.71914400      -0.28269700
C        4.03299000       7.39663000      19.16442000      -1.28622800      -0.30161700      -1.16244000
C        5.66759000       4.37883000      18.69055000       0.85906600       0.24028200      -0.02307900
C       13.80697000       1.62423000      15.73761000      -1.39675500      -0.00059500      -0.42815200
C        5.96766000       5.10380000      17.46640000       1.19787300      -0.21580000       0.36758600
C       12.90572000       9.60629000      13.17403000      -0.76470500      -0.84484900       1.49020900
C        2.43254000       9.03329000      15.54076000      -0.42845200       0.34198800      -0.34075900
C       14.03762000      10.36654000      15.86489000      -0.66742900      -0.23951300       0.03369200
C        2.15249000       5.64687000      18.87669000      -1.35101900      -0.22981200      -0.48934700
C        1.79662000       3.04463000      14.66237000      -0.79431800      -0.61935500       1.10085300
C        1.45291000       1.20516000      13.05093000       0.11932900      -0.66478300      -0.02743000
C        1.27496000       4.96244000      12.79328000       0.31288600       0.13969100       0.35088800
C        5.42934000       7.56267000       0.55152000      -0.10346300      -0.74477100       0.92403200
C        6.75231000       4.06827000      19.65334000      -0.74261900       0.24674500      -0.60828200
C       12.92405000       3.74803000      12.48399000       0.42616200       0.50944200       0.25487500
C        7.33518000       5.33230000      17.08468000      -0.54636000       0.17471000       0.34700800
C       12.44546000       1.78111000      15.25786000       1.67230400       0.48828300       0.87297600
C        3.41344000       6.80798000      15.27361000      -0.67236000       0.28315900      -0.53126900
C        2.68030000       4.15019000      14.66432000       0.30269100       0.95039800       0.20514800
C        1.74805000       7.61711000      13.61361000      -0.26434400      -0.63400200      -0.07380400
C       12.60997000       5.18940000      12.73149000      -0.09049200      -0.59954300       0.73127400
C        1.36793000       2.55140000      13.31746000      -0.12166400       0.44725700      -0.19714800
C        5.33100000       5.58793000       2.02547000       0.20714500       0.38967600       0.66665900
C       13.50802000       7.80120000      17.85995000      -0.37177300      -0.65166400       0.15413000
C        2.36740000       7.59869000      17.38800000      -0.80997100       0.94289600      -1.04727800
C       12.21434000       3.01264000      14.55722000      -0.24535900      -0.91221000      -0.92495600
C       12.15038000       4.62900000      16.41254000       0.19410300      -0.04692800       0.04221300
C       14.07147000       7.31258000      13.13709000       0.49385100      -0.77192200      -0.04557100